22
Image 0  Energy = -383.5281735610
C  -0.7781260000 -1.0675610000  0.3210590000
C   1.3025530000  0.0521200000 -0.0282990000
C  -0.9719930000  1.4562490000  0.8236570000
C   1.9812290000 -0.4184330000  1.2501750000
C   2.2640330000  0.4351680000 -1.1331070000
N   0.2911640000 -0.8768210000 -0.5003990000
N  -2.0191630000 -1.3720060000 -0.2331120000
O  -1.6647340000  1.6302230000 -0.4018370000
H  -2.2586320000  0.8701390000 -0.4758990000
H   0.0278490000 -0.6783120000 -1.4584950000
H  -0.6097590000 -1.3678560000  1.3411780000
H   0.6812640000  0.9183000000  0.2869410000
H  -2.5732630000 -2.0573610000  0.2574120000
H  -2.0524280000 -1.5045420000 -1.2338230000
H  -0.3689930000  2.3513920000  0.9917470000
H  -1.6396090000  1.2942150000  1.6746530000
H   2.7644490000  0.2914620000  1.5228460000
H   1.7251140000  0.7306950000 -2.0377940000
H   2.4355930000 -1.4060980000  1.1342150000
H   1.2730050000 -0.4472240000  2.0805790000
H   2.8503450000  1.2986970000 -0.8143220000
H   2.9600090000 -0.3688060000 -1.3889100000
22
Image 1  Energy = -383.5280898340
C  -0.7780744975 -1.0682551051  0.3209896723
C   1.3024043695  0.0521704949 -0.0282825089
C  -0.9714503189  1.4567389493  0.8235666042
C   1.9811930370 -0.4183931102  1.2502647639
C   2.2639656269  0.4352408539 -1.1330758553
N   0.2910920215 -0.8766922716 -0.5003651199
N  -2.0193158571 -1.3720730894 -0.2331814948
O  -1.6647301810  1.6302406418 -0.4018664213
H  -2.2586520095  0.8700950307 -0.4758765811
H   0.0278703423 -0.6783378641 -1.4585273206
H  -0.6097656269 -1.3678242155  1.3411921731
H   0.6811726399  0.9182952208  0.2870137692
H  -2.5732930452 -2.0574089498  0.2574021489
H  -2.0524759831 -1.5045479598 -1.2338480980
H  -0.3690257884  2.3514927413  0.9917593106
H  -1.6395583027  1.2941162853  1.6746785336
H   2.7644586571  0.2914803352  1.5228519741
H   1.7251078847  0.7307047644 -2.0378139433
H   2.4356013710 -1.4061070677  1.1342160556
H   1.2730118511 -0.4472106573  2.0805978443
H   2.8503441982  1.2987218566 -0.8143194664
H   2.9600266111 -0.3688068837 -1.3889110400
22
Image 2  Energy = -383.5363548839
C  -0.7865038460 -0.9511694768  0.3411736248
C   1.3211220105  0.0462384129 -0.0326745847
C  -1.0343083417  1.3900574972  0.8305378144
C   1.9861558114 -0.4236997150  1.2401674260
C   2.2740129146  0.4266303734 -1.1378620142
N   0.3054655922 -0.8952215843 -0.5044228104
N  -1.9985063799 -1.3616445267 -0.2255149149
O  -1.6696370621  1.6274902618 -0.3974384081
H  -2.2589505120  0.8754914527 -0.4828467152
H   0.0245074206 -0.6735216751 -1.4539170708
H  -0.6089806311 -1.3709908235  1.3349608474
H   0.6995564222  0.9164751016  0.2734168741
H  -2.5654065051 -2.0467235171  0.2594008743
H  -2.0431427470 -1.5022903738 -1.2268044416
H  -0.3732361595  2.3150272828  0.9882840318
H  -1.6610258171  1.3082263616  1.6810685254
H   2.7631334752  0.2881547043  1.5216813876
H   1.7263800838  0.7286494326 -2.0343504832
H   2.4354013330 -1.4067455003  1.1336528374
H   1.2733678917 -0.4495126726  2.0749834439
H   2.8508456597  1.2940139409 -0.8150892987
H   2.9596564249 -0.3712949061 -1.3899418659
22
Image 3  Energy = -383.5426301600
C  -0.7963684436 -0.8323646793  0.3692088892
C   1.3334438422  0.0428352312 -0.0397096757
C  -1.0830303406  1.3252924686  0.8262611560
C   1.9911560195 -0.4277408177  1.2341619637
C   2.2830665230  0.4218016442 -1.1417381602
N   0.3197924114 -0.9093758872 -0.5041733070
N  -1.9825101882 -1.3454613236 -0.2174145990
O  -1.6771023851  1.6269268835 -0.3900032660
H  -2.2665928319  0.8762856779 -0.4957124653
H   0.0221809463 -0.6677853418 -1.4484804855
H  -0.6088094775 -1.3683241718  1.3248697717
H   0.7263636224  0.9129932178  0.2561593885
H  -2.5528356601 -2.0321243233  0.2628445389
H  -2.0301023264 -1.4986487577 -1.2185559168
H  -0.3815044245  2.2592455123  0.9848496841
H  -1.6955112652  1.3201571020  1.6963387307
H   2.7629655964  0.2847221447  1.5206048564
H   1.7279635017  0.7259449643 -2.0313438016
H   2.4366239971 -1.4101033266  1.1324611748
H   1.2748625204 -0.4524181049  2.0669551928
H   2.8531990963  1.2892599890 -0.8163465714
H   2.9626563076 -0.3774780428 -1.3927720060
22
Image 4  Energy = -383.5530205143
C  -0.8130626988 -0.6323646763  0.4259205220
C   1.3575314501  0.0342085132 -0.0545660813
C  -1.1630838638  1.1908344184  0.8265081180
C   2.0011666605 -0.4339308131  1.2247719551
C   2.3003869846  0.4138001454 -1.1493744013
N   0.3278785470 -0.9174195843 -0.4893570042
N  -1.9620436892 -1.2935986591 -0.2012482324
O  -1.7103042845  1.6184085834 -0.3805165954
H  -2.2891433272  0.8805606856 -0.5332386519
H   0.0219525862 -0.6566275991 -1.4326603288
H  -0.6120422428 -1.3374868911  1.2996519555
H   0.7883399695  0.9143603138  0.2194480049
H  -2.5216830467 -1.9982253662  0.2747528121
H  -1.9966511306 -1.4869984097 -1.1981513917
H  -0.3980545501  2.1198794816  0.9800833284
H  -1.7635073648  1.3365668922  1.7150627345
H   2.7666682271  0.2793247290  1.5197088677
H   1.7317556168  0.7201986914 -2.0282463620
H   2.4407382552 -1.4194334316  1.1289941907
H   1.2783203204 -0.4592574767  2.0504962344
H   2.8634374168  1.2827053798 -0.8191851841
H   2.9713071879 -0.3918648876 -1.4003894293
22
Image 5  Energy = -383.5674369474
C  -0.8404405538 -0.5009373138  0.4712475111
C   1.3847358016  0.0254218078 -0.0644121111
C  -1.2234587310  1.0613791500  0.8152902957
C   2.0161748661 -0.4413399047  1.2169157230
C   2.3221110504  0.4039071434 -1.1611179450
N   0.3198128912 -0.8886400478 -0.4608070126
N  -1.9635615926 -1.2224013505 -0.1757834834
O  -1.7330638953  1.6149345113 -0.3562346913
H  -2.3393736589  0.8671842894 -0.5897073324
H   0.0232826904 -0.6458895001 -1.4106591312
H  -0.6197257122 -1.2654733193  1.2788457063
H   0.8524679288  0.9310397721  0.1842240068
H  -2.4812058118 -1.9531288422  0.2899162980
H  -1.9532891501 -1.4679088487 -1.1744578674
H  -0.4168937771  1.9507429127  0.9801915705
H  -1.8274078355  1.3337231129  1.7189175317
H   2.7737529954  0.2738278592  1.5198320489
H   1.7373698355  0.7138573449 -2.0277783158
H   2.4460281492 -1.4287762585  1.1251323809
H   1.2817099408 -0.4668058699  2.0338853177
H   2.8778604426  1.2754141062 -0.8236408972
H   2.9830211071 -0.4064907490 -1.4113346516
22
Image 6  Energy = -383.6046216471
C  -0.8736853275 -0.4948683009  0.4901082480
C   1.4024592315  0.0300698125 -0.0664953263
C  -1.2393600935  0.9954252024  0.8156589371
C   2.0323413762 -0.4463149121  1.2179145447
C   2.3422736588  0.3953014350 -1.1740939832
N   0.2898887518 -0.8174557032 -0.4174186571
N  -2.0011816081 -1.1313736734 -0.1654541708
O  -1.7834894881  1.5746058969 -0.3449634511
H  -2.3892271924  0.8734935454 -0.6550768192
H   0.0257550126 -0.6344927316 -1.3846419161
H  -0.6327557988 -1.1476851833  1.2749174151
H   0.9191684022  0.9644884645  0.1556284140
H  -2.4363726509 -1.9045960545  0.3154066341
H  -1.8993976255 -1.4373294177 -1.1366519600
H  -0.4376222349  1.7507429097  0.9895309282
H  -1.8760371045  1.2916636355  1.6969565337
H   2.7872727808  0.2689145240  1.5221433718
H   1.7459123220  0.7067356580 -2.0320454608
H   2.4554122197 -1.4417807776  1.1206178860
H   1.2869343569 -0.4747892313  2.0162647858
H   2.8985180192  1.2671877655 -0.8309835641
H   3.0030998277 -0.4243029805 -1.4288576926
22
Image 7  Energy = -383.6172216516
C  -0.8889733871 -0.5411148109  0.4171294087
C   1.3953331661  0.0620279678 -0.0455159032
C  -1.2277354024  1.0223585000  0.8055703592
C   2.0441849960 -0.4469012176  1.2219366479
C   2.3517849974  0.3805445664 -1.1825144171
N   0.2462739731 -0.7536784278 -0.3972274719
N  -2.0903287213 -1.0811593977 -0.1724467297
O  -1.8179212883  1.5509297139 -0.3492282305
H  -2.4423314850  0.8655415062 -0.7034609865
H   0.0244684550 -0.6221609749 -1.3614844462
H  -0.6372277034 -1.0861533825  1.3621894482
H   0.9700639702  1.0196848988  0.1537297963
H  -2.4016452227 -1.8659046530  0.3382627281
H  -1.8508208756 -1.4054430934 -1.1002962969
H  -0.4264554946  1.6008523528  1.0061608495
H  -1.8994656694  1.2056820057  1.6659244949
H   2.8088444542  0.2663102746  1.5298621388
H   1.7578061606  0.7008119305 -2.0440001213
H   2.4666293641 -1.4511632220  1.1160742900
H   1.2912417005 -0.4809718138  2.0090248569
H   2.9228447851  1.2581670738 -0.8425766703
H   3.0233359454 -0.4346200425 -1.4486492529
22
Image 8  Energy = -383.6269836876
C  -0.9053674342 -0.4767104350  0.4591442758
C   1.4046732037  0.0678834397 -0.0462825328
C  -1.2860856823  0.9467123901  0.7959055443
C   2.0518088958 -0.4482684381  1.2203965588
C   2.3597033524  0.3732236790 -1.1861034586
N   0.2450480780 -0.7396794537 -0.3949343143
N  -2.1028704727 -1.0354806033 -0.1810264626
O  -1.8570676781  1.5327038428 -0.3634284942
H  -2.4548646822  0.8801612683 -0.7246320999
H   0.0221855938 -0.6111530643 -1.3565258501
H  -0.6484612819 -1.0422574785  1.3698198579
H   1.0102451414  1.0482230588  0.1444169682
H  -2.3853094839 -1.8518990320  0.3571349165
H  -1.8257239469 -1.3926866638 -1.0805524390
H  -0.3985654364  1.5181712706  1.0167531565
H  -1.9286350724  1.1742173395  1.6575997451
H   2.8184146291  0.2615812644  1.5329243372
H   1.7655269468  0.6956238742 -2.0473822022
H   2.4718260760 -1.4556425953  1.1121190180
H   1.2952881942 -0.4860924498  2.0020622074
H   2.9353222240  1.2484304278 -0.8504445290
H   3.0328155231 -0.4434219247 -1.4584997745
22
Image 9  Energy = -383.6299857730
C  -0.8989496959 -0.5419501327  0.4732996199
C   1.3925770529  0.0688932373 -0.0463015497
C  -1.2670729052  0.9985203785  0.7820083498
C   2.0448766129 -0.4435172773  1.2241708830
C   2.3478237723  0.3796032694 -1.1781455140
N   0.2612958310 -0.7584790195 -0.4116410958
N  -2.0918268999 -1.0791434159 -0.1865802841
O  -1.8330785409  1.5552134513 -0.3727863778
H  -2.4361922606  0.8765389315 -0.6941030144
H   0.0182156260 -0.6123745081 -1.3803196499
H  -0.6537063453 -1.0732158982  1.3676718241
H   0.9776678950  1.0479038409  0.1680861049
H  -2.4103620165 -1.8769436558  0.3465527367
H  -1.8521105264 -1.4085389103 -1.1009230323
H  -0.3743722501  1.6202514518  1.0185551718
H  -1.9006672618  1.1688706553  1.6605555045
H   2.8151859349  0.2618088554  1.5338282799
H   1.7653442280  0.6974989328 -2.0478854842
H   2.4680030034 -1.4465282582  1.1124409643
H   1.2947654683 -0.4827716685  2.0137758947
H   2.9284053267  1.2470326362 -0.8518608804
H   3.0240846748 -0.4350331502 -1.4519339396
22
Image 10  Energy = -383.6342907089
C  -0.9125558484 -0.5145301372  0.4715591955
C   1.3951144436  0.0801570214 -0.0459409877
C  -1.2590882735  0.9854347413  0.7762251723
C   2.0481288489 -0.4424177055  1.2233375358
C   2.3516890597  0.3745435158 -1.1805220692
N   0.2561902839 -0.7508377785 -0.4034505011
N  -2.1000144845 -1.0709277165 -0.1705723261
O  -1.8401995912  1.5580834815 -0.3771738920
H  -2.4524402782  0.8746953543 -0.7062413271
H   0.0129722068 -0.6013844789 -1.3836129371
H  -0.6651438881 -1.0547925197  1.3873787290
H   0.9980109174  1.0688785124  0.1720858564
H  -2.4082731931 -1.8688237001  0.3483774523
H  -1.8401340822 -1.4092681246 -1.1013828456
H  -0.3750226023  1.5772570085  1.0203087171
H  -1.9158688425  1.1359257711  1.6543402199
H   2.8222031767  0.2574059427  1.5374529960
H   1.7725078979  0.6935564385 -2.0511913231
H   2.4701379545 -1.4444500947  1.1084435201
H   1.2985360989 -0.4855120640  2.0150114428
H   2.9374942117  1.2383576895 -0.8598578363
H   3.0256626974 -0.4377114374 -1.4561103155
22
Image 11  Energy = -383.6367855609
C  -0.9202578912 -0.4939827640  0.4726943348
C   1.3948959294  0.0961139410 -0.0418193647
C  -1.2578263571  0.9765685010  0.7676112367
C   2.0508340436 -0.4384617462  1.2230015007
C   2.3545210052  0.3690887278 -1.1838884934
N   0.2458448976 -0.7385325020 -0.4034301103
N  -2.1065579518 -1.0649778947 -0.1728177837
O  -1.8488585432  1.5582227334 -0.3849721060
H  -2.4669557871  0.8778193327 -0.7147684812
H   0.0073287598 -0.5868953749 -1.3801989114
H  -0.6834568266 -1.0302022566  1.4115265450
H   1.0229017872  1.0961040310  0.1804373640
H  -2.4112792924 -1.8684846216  0.3549557599
H  -1.8320931232 -1.4068842676 -1.0891381107
H  -0.3696686076  1.5349529918  1.0235572007
H  -1.9288430330  1.0877758501  1.6412289685
H   2.8321057135  0.2514484207  1.5430447229
H   1.7824212102  0.6883262524 -2.0567448555
H   2.4726507207 -1.4407450342  1.1019823678
H   1.3045300951 -0.4887509937  2.0181412862
H   2.9509570337  1.2273530358 -0.8712149342
H   3.0267129137 -0.4422166657 -1.4607237020
22
Image 12  Energy = -383.6389719783
C  -0.9204955578 -0.4872248457  0.4670968925
C   1.3910708264  0.1121678914 -0.0392183102
C  -1.2644382492  0.9713765769  0.7567704240
C   2.0507502797 -0.4312389233  1.2234054564
C   2.3547001966  0.3661932522 -1.1855799848
N   0.2410230019 -0.7213217391 -0.3983679800
N  -2.1072982680 -1.0752424907 -0.1618002396
O  -1.8486945716  1.5601068138 -0.3937147607
H  -2.4734961470  0.8875348758 -0.7108619015
H  -0.0026208852 -0.5648539218 -1.3770677376
H  -0.7115256261 -1.0055151582  1.4314441821
H   1.0464009669  1.1236545718  0.1964491776
H  -2.4246158317 -1.8734579298  0.3544198134
H  -1.8313725651 -1.4144167268 -1.0851093276
H  -0.3614940532  1.5194857327  1.0266030602
H  -1.9346980276  1.0286456472  1.6209612678
H   2.8435924394  0.2438496011  1.5508103224
H   1.7941079823  0.6822629229 -2.0661643088
H   2.4729905976 -1.4312856867  1.0907875426
H   1.3142582838 -0.4914853991  2.0264270126
H   2.9694934728  1.2146893566 -0.8870376801
H   3.0222684203 -0.4502847448 -1.4617885134
22
Image 13  Energy = -383.6407822638
C  -0.9228908953 -0.4931840203  0.4707305828
C   1.3924748661  0.1335546396 -0.0327216656
C  -1.2547070170  0.9668763839  0.7411020187
C   2.0519164091 -0.4213123481  1.2239010331
C   2.3546320726  0.3635918301 -1.1882200137
N   0.2439846366 -0.6982710267 -0.3999533087
N  -2.0911807958 -1.0926783227 -0.1627893833
O  -1.8338095083  1.5700893401 -0.3977021731
H  -2.4801627244  0.8996986136 -0.6997760327
H  -0.0155729521 -0.5326982069 -1.3645158385
H  -0.7469038848 -0.9764664285  1.4386506737
H   1.0700461406  1.1476265746  0.2171051077
H  -2.4510193482 -1.8955686416  0.3563253971
H  -1.8441398762 -1.4311529343 -1.0791091417
H  -0.3715182096  1.5238832987  1.0268124108
H  -1.9452292230  0.9631380564  1.6012156087
H   2.8555499992  0.2347678509  1.5597785174
H   1.8071114052  0.6752648110 -2.0805380136
H   2.4697812218 -1.4158255205  1.0719454136
H   1.3279473808 -0.4932773109  2.0404460753
H   2.9955921395  1.2011119307 -0.9078751621
H   3.0080048528 -0.4655289168 -1.4563477101
22
Image 14  Energy = -383.6418211235
C  -0.9161871585 -0.4987663086  0.4671954387
C   1.3976107506  0.1355862027 -0.0314319145
C  -1.2620949047  0.9655210199  0.7469405512
C   2.0532217393 -0.4194672945  1.2254369250
C   2.3567750375  0.3659547578 -1.1897372622
N   0.2485963406 -0.6951467700 -0.3958728106
N  -2.0920481289 -1.1071032195 -0.1632091201
O  -1.8300101902  1.5663731207 -0.3963405213
H  -2.4755944284  0.9091781959 -0.6945505922
H  -0.0177473599 -0.5228601343 -1.3594718239
H  -0.7485218654 -0.9746008362  1.4327598265
H   1.0712739816  1.1464612333  0.2182036355
H  -2.4530462218 -1.8945466508  0.3528536468
H  -1.8497676243 -1.4378998965 -1.0799695377
H  -0.3821271863  1.5347204494  1.0272468460
H  -1.9465869707  0.9622835479  1.5966118530
H   2.8566680050  0.2347508959  1.5604118618
H   1.8080226246  0.6740478032 -2.0827910338
H   2.4678477696 -1.4143373398  1.0653760532
H   1.3315005573 -0.4924264729  2.0422332054
H   3.0013645677  1.1996078405 -0.9121365976
H   3.0007573592 -0.4736904923 -1.4512942267
22
Image 15  Energy = -383.6424551918
C  -0.9146170880 -0.5027186437  0.4636242590
C   1.4030049538  0.1380364048 -0.0301085281
C  -1.2695173551  0.9605851122  0.7491994396
C   2.0562358619 -0.4186023831  1.2265244088
C   2.3596796023  0.3667574815 -1.1911171666
N   0.2545087163 -0.6925589727 -0.3930179050
N  -2.0903779335 -1.1131874316 -0.1630364636
O  -1.8241610318  1.5655535411 -0.3933125166
H  -2.4754119658  0.9166027144 -0.6923922242
H  -0.0191280948 -0.5109293622 -1.3536410144
H  -0.7472132172 -0.9743826915  1.4289289059
H   1.0726326839  1.1469782107  0.2186511121
H  -2.4551169559 -1.8967542760  0.3528279325
H  -1.8541943146 -1.4472430671 -1.0848700239
H  -0.3937735726  1.5446975294  1.0297027160
H  -1.9527547644  0.9630533782  1.5951973122
H   2.8589789399  0.2355930481  1.5612503191
H   1.8089406816  0.6725726981 -2.0846882270
H   2.4659590564 -1.4136579322  1.0579343993
H   1.3350885397 -0.4913616596  2.0435323392
H   3.0087172085  1.1981873174 -0.9171272326
H   2.9924267449 -0.4835813690 -1.4455974303
22
Image 16  Energy = -383.6435188822
C  -0.9136980853 -0.5075601181  0.4601128675
C   1.4124489055  0.1481625904 -0.0262580760
C  -1.2796368697  0.9518357231  0.7523015590
C   2.0652170470 -0.4160674262  1.2275257743
C   2.3664429032  0.3651085138 -1.1932357038
N   0.2640677804 -0.6852184586 -0.3880040205
N  -2.0894978233 -1.1260975741 -0.1674396133
O  -1.8172857753  1.5647879867 -0.3919577791
H  -2.4810602803  0.9346656971 -0.6929407724
H  -0.0212190015 -0.4782955882 -1.3416287395
H  -0.7439252457 -0.9722071045  1.4277462126
H   1.0803458002  1.1566892071  0.2210920744
H  -2.4572158179 -1.8992014234  0.3551081016
H  -1.8614882416 -1.4682658749 -1.0923989352
H  -0.4211184886  1.5540311082  1.0393588705
H  -1.9758759500  0.9560988754  1.5932969436
H   2.8685899384  0.2369795185  1.5646585916
H   1.8134858724  0.6675422994 -2.0886871631
H   2.4631784750 -1.4130167919  1.0396550573
H   1.3445621737 -0.4894898619  2.0458713067
H   3.0299628408  1.1917981289 -0.9319534046
H   2.9736265440 -0.5086397913 -1.4337587400
22
Image 17  Energy = -383.6443239924
C  -0.9114486439 -0.5144771044  0.4596378139
C   1.4259089438  0.1727482025 -0.0146837313
C  -1.3238010057  0.9380849558  0.7679203331
C   2.0852783704 -0.4087545934  1.2264372275
C   2.3796875814  0.3572963165 -1.1948101147
N   0.2717193945 -0.6709027985 -0.3896256555
N  -2.0807444966 -1.1390997900 -0.1866744736
O  -1.8078079020  1.5675662905 -0.3937763970
H  -2.5036037348  0.9682872169 -0.7048402502
H  -0.0178954410 -0.4078795773 -1.3182105439
H  -0.7280781457 -0.9785691175  1.4300101837
H   1.0948996293  1.1824093266  0.2250123291
H  -2.4571154374 -1.9065901069  0.3670208955
H  -1.8704839087 -1.5106573651 -1.1019252681
H  -0.4671828095  1.5656981549  1.0715939528
H  -2.0237128199  0.9454969991  1.5811496725
H   2.8925229411  0.2378218785  1.5704635830
H   1.8252740423  0.6545298138 -2.0905479131
H   2.4608070674 -1.4134598701  1.0046138294
H   1.3661926676 -0.4860757590  2.0451759337
H   3.0741946468  1.1703135564 -0.9650040833
H   2.9352957618 -0.5601470072 -1.4104729077
22
Image 18  Energy = -383.6457744340
C  -0.9156148512 -0.5141457421  0.4620862691
C   1.4267674849  0.1820324259 -0.0128248999
C  -1.3214422995  0.9384998846  0.7625432365
C   2.0917664887 -0.4064756223  1.2241554904
C   2.3823712743  0.3507218250 -1.1929576696
N   0.2744426583 -0.6596449246 -0.3858620185
N  -2.0797380275 -1.1457142678 -0.1838074895
O  -1.8109080138  1.5679909522 -0.3969642781
H  -2.5130497644  0.9808106668 -0.7110475500
H  -0.0182507835 -0.3800240786 -1.3164258267
H  -0.7255492517 -0.9796763326  1.4334835846
H   1.1022610055  1.1974250004  0.2292446701
H  -2.4557308537 -1.9049767495  0.3682912036
H  -1.8688888445 -1.5259226222 -1.1053335620
H  -0.4842387513  1.5592898142  1.0851916200
H  -2.0495807980  0.9325365074  1.5805119325
H   2.9035659076  0.2357057604  1.5728708544
H   1.8313167910  0.6487433060 -2.0915118446
H   2.4609670754 -1.4101617719  0.9935166003
H   1.3749999058 -0.4858303268  2.0455124614
H   3.0916968243  1.1584948271 -0.9783140063
H   2.9227435265 -0.5760389168 -1.4038943654
22
Image 19  Energy = -383.6465986710
C  -0.9183349443 -0.5103176130  0.4665980212
C   1.4246456173  0.1901774491 -0.0108160725
C  -1.3242972884  0.9406031925  0.7610006923
C   2.0960801732 -0.4038411666  1.2208376167
C   2.3826699990  0.3433821537 -1.1898496832
N   0.2708906981 -0.6477881293 -0.3876007989
N  -2.0769840761 -1.1486069476 -0.1848652022
O  -1.8180887688  1.5692564085 -0.4018477513
H  -2.5226810833  0.9888857160 -0.7195434713
H  -0.0159981354 -0.3590191988 -1.3171659897
H  -0.7209672359 -0.9850380507  1.4364415554
H   1.1069811741  1.2104438786  0.2324109561
H  -2.4522247050 -1.9027896763  0.3705791035
H  -1.8629358120 -1.5343304375 -1.1011698888
H  -0.4930819143  1.5490234263  1.1005325740
H  -2.0694313371  0.9234941512  1.5760251254
H   2.9132065594  0.2317978871  1.5729515866
H   1.8367393123  0.6430454121 -2.0895976930
H   2.4630230026 -1.4065869454  0.9879016644
H   1.3824193653 -0.4863286435  2.0439278408
H   3.1038256216  1.1439457067 -0.9881818029
H   2.9144504790 -0.5857689653 -1.4001039722
22
Image 20  Energy = -383.6474624541
C  -0.9197133420 -0.5059112102  0.4706690641
C   1.4242070967  0.2058168827 -0.0064674261
C  -1.3416350018  0.9395578036  0.7626259462
C   2.1035494250 -0.3976857968  1.2161335800
C   2.3829319086  0.3327577673 -1.1854613164
N   0.2664612655 -0.6239282820 -0.3879623169
N  -2.0711086265 -1.1543869795 -0.1860089454
O  -1.8265401161  1.5722569960 -0.4068848821
H  -2.5399376692  1.0042413924 -0.7342391175
H  -0.0134013212 -0.3169951861 -1.3181636731
H  -0.7110493881 -0.9946651471  1.4358217716
H   1.1151917093  1.2313328386  0.2372732237
H  -2.4463269204 -1.9001892975  0.3757103845
H  -1.8503118556 -1.5517058937 -1.0935945632
H  -0.5123930928  1.5362191239  1.1299627437
H  -2.1045522564  0.9113373061  1.5639161819
H   2.9304694149  0.2243292365  1.5710662154
H   1.8456688732  0.6319585244 -2.0867432875
H   2.4669797126 -1.4004287909  0.9757600223
H   1.3968537998 -0.4870650933  2.0417414372
H   3.1271600038  1.1153451574 -1.0054732575
H   2.8974030700 -0.6085517511 -1.3912173779
22
Image 21  Energy = -383.6478749253
C  -0.9249026653 -0.5003735960  0.4707707367
C   1.4293315390  0.2320789239  0.0028240877
C  -1.3702718075  0.9341301287  0.7682664138
C   2.1139172972 -0.3910824711  1.2095685875
C   2.3879414094  0.3085228447 -1.1832154965
N   0.2603405353 -0.5683588642 -0.4051985627
N  -2.0560913024 -1.1599288680 -0.1835929503
O  -1.8430378156  1.5706131958 -0.4076783327
H  -2.5538689129  1.0333031867 -0.7505301100
H  -0.0128974686 -0.2508290832 -1.3090126725
H  -0.6958353845 -1.0040417465  1.4177156668
H   1.1288476671  1.2596995999  0.2454044539
H  -2.4403130828 -1.9024813615  0.3890740979
H  -1.8145002600 -1.5783843422 -1.0747407814
H  -0.5565587488  1.5165442808  1.1761750853
H  -2.1636264534  0.8949467851  1.5378361678
H   2.9566446680  0.2099436974  1.5595035942
H   1.8537802132  0.6139363522 -2.0887774879
H   2.4738970123 -1.3835518214  0.9572270756
H   1.4189053055 -0.4891231733  2.0449597991
H   3.1640473328  1.0609023196 -1.0245993878
H   2.8641576108 -0.6428264074 -1.3735155602
22
Image 22  Energy = -383.6489010805
C  -0.9218045335 -0.4976689426  0.4682681007
C   1.4316252967  0.2380165985  0.0027441721
C  -1.3840056406  0.9297806092  0.7714876397
C   2.1156385923 -0.3877608919  1.2098896872
C   2.3873738782  0.3080346763 -1.1834519719
N   0.2608218682 -0.5601007720 -0.3976689300
N  -2.0551487107 -1.1669211425 -0.1856333395
O  -1.8386853750  1.5754228767 -0.4046712458
H  -2.5621314308  1.0374241671 -0.7558103491
H  -0.0155977841 -0.2283496497 -1.3135826552
H  -0.6904051569 -1.0064850557  1.4135429128
H   1.1332106130  1.2669884726  0.2473832422
H  -2.4379616141 -1.9014105024  0.3912324882
H  -1.8068219319 -1.5866770648 -1.0701986551
H  -0.5689266306  1.5163332772  1.1878618797
H  -2.1783646331  0.8916764987  1.5311636960
H   2.9633165828  0.2075530517  1.5567115289
H   1.8566528391  0.6087620982 -2.0884543771
H   2.4755576762 -1.3822493440  0.9501791360
H   1.4253652043 -0.4892043146  2.0457902263
H   3.1748896980  1.0478116262 -1.0299503329
H   2.8553078782 -0.6573366953 -1.3683684239
22
Image 23  Energy = -383.6492173173
C  -0.9199753137 -0.4961530961  0.4650066819
C   1.4338937828  0.2397150841  0.0021746702
C  -1.3911273167  0.9264158180  0.7745002613
C   2.1147677270 -0.3868871846  1.2109527165
C   2.3870967095  0.3080590034 -1.1854253224
N   0.2604429924 -0.5548399757 -0.3976735196
N  -2.0543022181 -1.1696346511 -0.1856161456
O  -1.8360976489  1.5770731239 -0.4009585220
H  -2.5602183792  1.0386555525 -0.7545839445
H  -0.0190259937 -0.2198594476 -1.3145410727
H  -0.6877486633 -1.0050387448  1.4068546598
H   1.1356803722  1.2674923427  0.2480916771
H  -2.4374938182 -1.9021570004  0.3929978112
H  -1.7978488401 -1.5896701015 -1.0667824575
H  -0.5770682777  1.5186041362  1.1911377135
H  -2.1838168563  0.8915686588  1.5270336254
H   2.9645202961  0.2067320992  1.5523948949
H   1.8558183593  0.6068086658 -2.0899950656
H   2.4763978939 -1.3814086853  0.9478974648
H   1.4270467360 -0.4893660959  2.0487023837
H   3.1782459245  1.0407613220 -1.0278407268
H   2.8507192212 -0.6632312492 -1.3658633482
22
Image 24  Energy = -383.6495509461
C  -0.9197809484 -0.4926060137  0.4616893395
C   1.4353967122  0.2446751568  0.0019801424
C  -1.4021664788  0.9228546321  0.7780197093
C   2.1145294424 -0.3857693975  1.2107526399
C   2.3865756753  0.3035809572 -1.1875989304
N   0.2579215496 -0.5421720283 -0.4016416904
N  -2.0510748622 -1.1730313485 -0.1859359432
O  -1.8343970319  1.5806639199 -0.3962205078
H  -2.5579474429  1.0427912459 -0.7542125771
H  -0.0249338091 -0.1986840706 -1.3159242023
H  -0.6807413471 -1.0033935811  1.3970312779
H   1.1424332464  1.2726737153  0.2503684281
H  -2.4353579964 -1.9033542635  0.3973384925
H  -1.7778069012 -1.5987550461 -1.0604454505
H  -0.5940497583  1.5198056209  1.2015238145
H  -2.2013911815  0.8871679943  1.5200161559
H   2.9692775551  0.2049511210  1.5442517279
H   1.8557057359  0.6021066105 -2.0928175905
H   2.4780750250 -1.3790159202  0.9427729885
H   1.4318661016 -0.4895697285  2.0540639673
H   3.1882266385  1.0244786779 -1.0257630730
H   2.8395467636 -0.6757586852 -1.3607842744
22
Image 25  Energy = -383.6500712434
C  -0.9199734018 -0.4857394254  0.4578671873
C   1.4334534457  0.2487214675 -0.0004526279
C  -1.4175178637  0.9225806758  0.7863378373
C   2.1126825868 -0.3856423889  1.2100430059
C   2.3869023578  0.2964929237 -1.1897346218
N   0.2493483975 -0.5252834061 -0.4120867451
N  -2.0462399793 -1.1824467850 -0.1934120695
O  -1.8329256361  1.5887453625 -0.3907920344
H  -2.5476861569  1.0479969940 -0.7508693809
H  -0.0381092938 -0.1616996493 -1.3193800740
H  -0.6652407122 -0.9980201199  1.3861532011
H   1.1568116367  1.2818863843  0.2540066299
H  -2.4286585693 -1.9021425528  0.4019631782
H  -1.7392627157 -1.6166604770 -1.0470846381
H  -0.6224164619  1.5254919864  1.2186611632
H  -2.2319374406  0.8752912091  1.5111056648
H   2.9739454058  0.2050966201  1.5283920495
H   1.8564396427  0.5955908240 -2.0977803673
H   2.4787627610 -1.3784247759  0.9353431760
H   1.4403898424 -0.4885466282  2.0632223495
H   3.2023550525  0.9969728852 -1.0187665401
H   2.8187838022 -0.6966215737 -1.3542718788
22
Image 26  Energy = -383.6503832439
C  -0.9262861866 -0.4769780446  0.4537886123
C   1.4277913472  0.2569281917 -0.0025452904
C  -1.4445143943  0.9236766793  0.7943833636
C   2.1109173019 -0.3877518168  1.2034436881
C   2.3838301211  0.2768730788 -1.1916827510
N   0.2342210181 -0.4931932265 -0.4328241975
N  -2.0325576074 -1.1842298942 -0.1979401035
O  -1.8285127000  1.6055142595 -0.3791542117
H  -2.5373176393  1.0526762082 -0.7522458130
H  -0.0598798345 -0.0984516557 -1.3230758551
H  -0.6382386589 -0.9892061669  1.3745687758
H   1.1810471032  1.2969031888  0.2588303924
H  -2.4176268234 -1.9014258034  0.4088749668
H  -1.6719393663 -1.6561052737 -1.0322576493
H  -0.6642989470  1.5353616569  1.2533721069
H  -2.2828391553  0.8511963201  1.4967370180
H   2.9800939532  0.2058128146  1.5022970168
H   1.8629357462  0.5855390743 -2.1024155835
H   2.4773182869 -1.3772721717  0.9249949640
H   1.4561411186 -0.4858159497  2.0757559667
H   3.2269395526  0.9520666042 -1.0089295125
H   2.7826824907 -0.7284785539 -1.3455114098
22
Image 27  Energy = -383.6508599736
C  -0.9248952928 -0.4773043608  0.4571596370
C   1.4261222247  0.2534739449 -0.0035056235
C  -1.4374145050  0.9268064456  0.7942615955
C   2.1097343588 -0.3887309854  1.2024639769
C   2.3837948868  0.2784488916 -1.1894208362
N   0.2338190179 -0.4979311368 -0.4307432315
N  -2.0314297544 -1.1851979988 -0.2033350159
O  -1.8326030976  1.6031449534 -0.3819005257
H  -2.5342393544  1.0512160961 -0.7525752188
H  -0.0597642295 -0.1059169372 -1.3227653365
H  -0.6401094232 -0.9874891660  1.3801511885
H   1.1788132997  1.2930875737  0.2568904078
H  -2.4176722718 -1.8994380837  0.4052364376
H  -1.6787457110 -1.6533532060 -1.0302594572
H  -0.6575554107  1.5358145665  1.2503704684
H  -2.2744301041  0.8511112177  1.4999156250
H   2.9752525375  0.2075509391  1.5039248313
H   1.8648680446  0.5886995647 -2.1005005561
H   2.4748954696 -1.3803059079  0.9283904681
H   1.4546352521 -0.4848298250  2.0724955989
H   3.2204336981  0.9580030588 -1.0084051496
H   2.7863970899 -0.7232201260 -1.3493847941
22
Image 28  Energy = -383.6511499822
C  -0.9239636908 -0.4751334018  0.4596663432
C   1.4226896971  0.2505562552 -0.0052205214
C  -1.4349455256  0.9308798154  0.7959348947
C   2.1076083002 -0.3907063697  1.1990001927
C   2.3831105001  0.2756794340 -1.1866248978
N   0.2298582599 -0.4949498440 -0.4328969219
N  -2.0270583591 -1.1864397124 -0.2082288119
O  -1.8363994823  1.6048613928 -0.3814835990
H  -2.5292330783  1.0494027149 -0.7556153758
H  -0.0652150538 -0.0995860713 -1.3221415664
H  -0.6360085514 -0.9829993712  1.3856670284
H   1.1811639215  1.2917861098  0.2551723283
H  -2.4148084084 -1.8950905903  0.4004843870
H  -1.6698721552 -1.6616905053 -1.0250444973
H  -0.6588599279  1.5385872363  1.2562236641
H  -2.2750559401  0.8448578881  1.5004384867
H   2.9698983082  0.2099399627  1.4993763245
H   1.8699456079  0.5909676605 -2.0986809685
H   2.4706285337 -1.3843635472  0.9306192015
H   1.4566099442 -0.4825293518  2.0704194937
H   3.2175168117  0.9543438283 -1.0056697157
H   2.7822970191 -0.7247340221 -1.3529309778
22
Image 29  Energy = -383.6514332179
C  -0.9212903960 -0.4706909340  0.4615040563
C   1.4193204460  0.2491245455 -0.0076957002
C  -1.4386787130  0.9333786344  0.7996787707